Program Version,EnergyPlus, Version 24.2.0-94a887817b, YMD=2025.11.03 23:56
1,5,Environment Title[],Latitude[deg],Longitude[deg],Time Zone[],Elevation[m]
2,8,Day of Simulation[],Month[],Day of Month[],DST Indicator[1=yes 0=no],Hour[],StartMinute[],EndMinute[],DayType
3,5,Cumulative Day of Simulation[],Month[],Day of Month[],DST Indicator[1=yes 0=no],DayType  ! When Daily Report Variables Requested
4,2,Cumulative Days of Simulation[],Month[]  ! When Monthly Report Variables Requested
5,1,Cumulative Days of Simulation[] ! When Run Period Report Variables Requested
6,1,Calendar Year of Simulation[] ! When Annual Report Variables Requested
13,11,Electricity:Facility [J] !RunPeriod [Value,Min,Month,Day,Hour,Minute,Max,Month,Day,Hour,Minute]
25,11,Electricity:Building [J] !RunPeriod [Value,Min,Month,Day,Hour,Minute,Max,Month,Day,Hour,Minute]
8342,11,NaturalGas:Facility [J] !RunPeriod [Value,Min,Month,Day,Hour,Minute,Max,Month,Day,Hour,Minute]
End of Data Dictionary
1,YEAR ROUND RUN PERIOD,  41.98, -87.92,  -6.00, 201.00
5,365
13,3080745560625.634,12781177.782061247, 5, 9, 6,45,178027326.72044283,11,20,10,60
25,1106869964033.9448,10839067.871234316, 5, 9, 6,45,68415138.34171325, 1, 2,17,30
8342,7978855809734.578,144004542.24553725,11,12,12,30,441694179.575729, 4,11,14,45
End of Data
 Number of Records Written=           3
